
Running Job 1 of 1 dist_nap.inp
qchem dist_nap.inp_201877.0 /tmp/qchem-203313/qchem201877/ 0
/opt/soft/q-chem-v6.0/exe/qcprog.exe_s dist_nap.inp_201877.0 /tmp/qchem-203313/qchem201877/
                  Welcome to Q-Chem
     A Quantum Leap Into The Future Of Chemistry


 Q-Chem 6.0, Q-Chem, Inc., Pleasanton, CA (2022)

 E. Epifanovsky,  A. T. B. Gilbert,  Xintian Feng,  Joonho Lee,  Yuezhi Mao,  
 N. Mardirossian,  P. Pokhilko,  A. White,  M. Wormit,  M. P. Coons,  
 A. L. Dempwolff,  Zhengting Gan,  D. Hait,  P. R. Horn,  L. D. Jacobson,  
 I. Kaliman,  J. Kussmann,  A. W. Lange,  Ka Un Lao,  D. S. Levine,  Jie Liu,  
 S. C. McKenzie,  A. F. Morrison,  K. Nanda,  F. Plasser,  D. R. Rehn,  
 M. L. Vidal,  Zhi-Qiang You,  Ying Zhu,  B. Alam,  B. Albrecht,  
 A. Aldossary,  E. Alguire,  J. H. Andersen,  V. Athavale,  D. Barton,  
 K. Begam,  A. Behn,  N. Bellonzi,  Y. A. Bernard,  E. J. Berquist,  
 H. Burton,  A. Carreras,  K. Carter-Fenk,  Romit Chakraborty,  
 Chandrima Chakravarty,  Junhan Chen,  A. D. Chien,  K. D. Closser,  
 V. Cofer-Shabica,  L. Cunha,  S. Dasgupta,  Jia Deng,  M. de Wergifosse,  
 M. Diedenhofen,  Hainam Do,  S. Ehlert,  Po-Tung Fang,  S. Fatehi,  
 Qingguo Feng,  T. Friedhoff,  B. Ganoe,  J. Gayvert,  Qinghui Ge,  
 G. Gidofalvi,  M. Goldey,  J. Gomes,  C. Gonzalez-Espinoza,  S. Gulania,  
 A. Gunina,  J. A. Gyamfi,  M. W. D. Hanson-Heine,  P. H. P. Harbach,  
 A. W. Hauser,  M. F. Herbst,  M. Hernandez Vera,  M. Hodecker,  
 Z. C. Holden,  S. Houck,  Xunkun Huang,  Kerwin Hui,  B. C. Huynh,  
 K. Ikeda,  M. Ivanov,  Hyunjun Ji,  Zuxin Jin,  Hanjie Jiang,  B. Kaduk,  
 S. Kaehler,  R. Kang,  K. Khistyaev,  Jaehoon Kim,  Yongbin Kim,  
 P. Klunzinger,  Z. Koczor-Benda,  Joong Hoon Koh,  D. Kosenkov,  
 Saikiran Kotaru,  L. Koulias,  T. Kowalczyk,  C. M. Krauter,  K. Kue,  
 A. Kunitsa,  T. Kus,  A. Landau,  K. V. Lawler,  D. Lefrancois,  S. Lehtola,  
 Rain Li,  Shaozhi Li,  Yi-Pei Li,  Jiashu Liang,  M. Liebenthal,  
 Hung-Hsuan Lin,  You-Sheng Lin,  Fenglai Liu,  Kuan-Yu Liu,  
 M. Loipersberger,  A. Luenser,  C. Malbon,  A. Manjanath,  P. Manohar,  
 E. Mansoor,  S. F. Manzer,  Shan-Ping Mao,  A. V. Marenich,  T. Markovich,  
 S. Mason,  F. Matz,  S. A. Maurer,  P. F. McLaughlin,  M. F. S. J. Menger,  
 J.-M. Mewes,  S. A. Mewes,  P. Morgante,  Mohammad Mostafanejad,  
 J. W. Mullinax,  K. J. Oosterbaan,  G. Paran,  V. Parravicini,  
 Alexander C. Paul,  Suranjan K. Paul,  F. Pavosevic,  Zheng Pei,  S. Prager,  
 E. I. Proynov,  E. Ramos,  B. Rana,  A. E. Rask,  A. Rettig,  R. M. Richard,  
 F. Rob,  E. Rossomme,  T. Scheele,  M. Scheurer,  M. Schneider,  
 P. E. Schneider,  N. Sergueev,  S. M. Sharada,  Hengyuan Shen,  
 W. Skomorowski,  D. W. Small,  C. J. Stein,  Yingli Su,  Yu-Chuan Su,  
 E. J. Sundstrom,  Zhen Tao,  J. Thirman,  Hung-Yi Tsai,  T. Tsuchimochi,  
 N. M. Tubman,  C. Utku,  S. P. Veccham,  O. Vydrov,  J. Wenzel,  
 Jonathan Wong,  J. Witte,  A. Yamada,  Chou-Hsun Yang,  Kun Yao,  
 S. Yeganeh,  S. R. Yost,  A. Zech,  F. Zeller,  Igor Ying Zhang,  
 Xing Zhang,  Yu Zhang,  D. Zuev,  A. Aspuru-Guzik,  A. T. Bell,  
 N. A. Besley,  K. B. Bravaya,  B. R. Brooks,  D. Casanova,  Jeng-Da Chai,  
 Hsing-Ta Chen,  S. Coriani,  C. J. Cramer,  A. E. DePrince, III,  
 R. A. DiStasio Jr.,  A. Dreuw,  B. D. Dunietz,  T. R. Furlani,  
 W. A. Goddard III,  S. Grimme,  S. Hammes-Schiffer,  T. Head-Gordon,  
 W. J. Hehre,  Chao-Ping Hsu,  T.-C. Jagau,  Yousung Jung,  A. Klamt,  
 Jing Kong,  D. S. Lambrecht,  Xiangyuan Li,  WanZhen Liang,  N. J. Mayhall,  
 C. W. McCurdy,  J. B. Neaton,  T. Neudecker,  C. Ochsenfeld,  
 J. A. Parkhill,  R. Peverati,  V. A. Rassolov,  Haisheng Ren,  Yihan Shao,  
 L. V. Slipchenko,  R. P. Steele,  J. E. Subotnik,  A. J. W. Thom,  
 A. Tkatchenko,  D. G. Truhlar,  T. Van Voorhis,  Fan Wang,  
 T. A. Wesolowski,  K. B. Whaley,  H. L. Woodcock III,  P. M. Zimmerman,  
 S. Faraji,  P. M. W. Gill,  M. Head-Gordon,  J. M. Herbert,  A. I. Krylov

 Contributors to earlier versions of Q-Chem not listed above: 
 R. D. Adamson,  B. Austin,  R. Baer,  J. Baker,  G. J. O. Beran,  
 K. Brandhorst,  S. T. Brown,  E. F. C. Byrd,  Arup K. Chakraborty,  
 G. K. L. Chan,  Chun-Min Chang,  Yunqing Chen,  C.-L. Cheng,  
 Siu Hung Chien,  D. M. Chipman,  D. L. Crittenden,  H. Dachsel,  
 R. J. Doerksen,  A. D. Dutoi,  R. G. Edgar,  J. Fosso-Tande,  
 L. Fusti-Molnar,  D. Ghosh,  A. Ghysels,  A. Golubeva-Zadorozhnaya,  
 J. Gonthier,  M. S. Gordon,  S. R. Gwaltney,  G. Hawkins,  J. E. Herr,  
 A. Heyden,  S. Hirata,  E. G. Hohenstein,  G. Kedziora,  F. J. Keil,  
 C. Kelley,  Jihan Kim,  R. A. King,  R. Z. Khaliullin,  P. P. Korambath,  
 W. Kurlancheek,  A. Laurent,  A. M. Lee,  M. S. Lee,  S. V. Levchenko,  
 Ching Yeh Lin,  D. Liotard,  E. Livshits,  R. C. Lochan,  I. Lotan,  
 L. A. Martinez-Martinez,  P. E. Maslen,  N. Nair,  D. P. O'Neill,  
 D. Neuhauser,  E. Neuscamman,  C. M. Oana,  R. Olivares-Amaya,  R. Olson,  
 T. M. Perrine,  B. Peters,  P. A. Pieniazek,  A. Prociuk,  Y. M. Rhee,  
 J. Ritchie,  M. A. Rohrdanz,  E. Rosta,  N. J. Russ,  H. F. Schaefer III,  
 M. W. Schmidt,  N. E. Schultz,  S. Sharma,  N. Shenvi,  C. D. Sherrill,  
 A. C. Simmonett,  A. Sodt,  T. Stein,  D. Stuck,  K. S. Thanthiriwatte,  
 V. Vanovschi,  L. Vogt,  Tao Wang,  A. Warshel,  M. A. Watson,  
 C. F. Williams,  Q. Wu,  X. Xu,  Jun Yang,  W. Zhang,  Yan Zhao

   Please cite Q-Chem as follows:
  "Software for the frontiers of quantum chemistry:
   An overview of developments in the Q-Chem 5 package"
   J. Chem. Phys. 155, 084801 (2021)
   https://doi.org/10.1063/5.0055522 (open access)

 Q-Chem 6.0.2 for Intel X86 EM64T Linux

 Parts of Q-Chem use Armadillo 9.900.5 (Nocturnal Misbehaviour).
 http://arma.sourceforge.net/

 Q-Chem begins on Fri Nov 22 13:27:07 2024  

 Host: 
0

     Scratch files written to /tmp/qchem-203313/qchem201877//
 Dec722 |scratch|qcdevops|jenkins|workspace|build_RNUM 8808   
 Processing $rem in /opt/soft/q-chem-v6.0/config/preferences:
 Processing $rem in /home/jingheng/.qchemrc:

 Checking the input file for inconsistencies... 	...done.

--------------------------------------------------------------
User input:
--------------------------------------------------------------
$molecule
0 1
C   0.00000000   0.71817600   0.00000000
C   0.00000000  -0.71817600   0.00000000
C  -1.24721700   1.40458900   0.00000000
C  -1.24721700  -1.40458900   0.00000000
C  -2.43820700  -0.70931400   0.00000000
H  -3.38829700  -1.24972900   0.00000000
C  -2.43820700   0.70931400   0.00000000
H  -3.38829700   1.24972900   0.00000000
H  -1.24548400   2.49824300   0.00000000
H  -1.24548400  -2.49824300   0.00000000
C   1.24247096   1.40458900   0.10870212
C   1.24247096  -1.40458900   0.10870212
C   2.42892889  -0.70931400   0.21250374
H   3.37540351  -1.24972900   0.29530954
C   2.42892889   0.70931400   0.21250374
H   3.37540351   1.24972900   0.29530954
H   1.24074456   2.49824300   0.10855108
H   1.24074456  -2.49824300   0.10855108
$end

$rem
job_type sp
symmetry false
sym_ignore  true
METHOD cam-b3lyp
BASIS  6-31+G*
THRESH 14
MAX_SCF_CYCLES  500
XC_GRID  000120000194
scf_convergence 8
make_cube_files 1
plots 1
$end

$plots
grid_range (-6,6) (-6,6) (-6,6)
grid_points 120 120 120
alpha_molecular_orbital 34-35
$end
--------------------------------------------------------------
 ----------------------------------------------------------------
             Standard Nuclear Orientation (Angstroms)
    I     Atom           X                Y                Z
 ----------------------------------------------------------------
    1      C       0.0000000000     0.7181760000     0.0000000000
    2      C       0.0000000000    -0.7181760000     0.0000000000
    3      C      -1.2472170000     1.4045890000     0.0000000000
    4      C      -1.2472170000    -1.4045890000     0.0000000000
    5      C      -2.4382070000    -0.7093140000     0.0000000000
    6      H      -3.3882970000    -1.2497290000     0.0000000000
    7      C      -2.4382070000     0.7093140000     0.0000000000
    8      H      -3.3882970000     1.2497290000     0.0000000000
    9      H      -1.2454840000     2.4982430000     0.0000000000
   10      H      -1.2454840000    -2.4982430000     0.0000000000
   11      C       1.2424709600     1.4045890000     0.1087021200
   12      C       1.2424709600    -1.4045890000     0.1087021200
   13      C       2.4289288900    -0.7093140000     0.2125037400
   14      H       3.3754035100    -1.2497290000     0.2953095400
   15      C       2.4289288900     0.7093140000     0.2125037400
   16      H       3.3754035100     1.2497290000     0.2953095400
   17      H       1.2407445600     2.4982430000     0.1085510800
   18      H       1.2407445600    -2.4982430000     0.1085510800
 ----------------------------------------------------------------
 Nuclear Repulsion Energy =         456.31195191 hartrees
 There are       34 alpha and       34 beta electrons
 Requested basis set is 6-31+G(d)
 There are 66 shells and 206 basis functions

 Total QAlloc Memory Limit  30000 MB
 Mega-Array Size       188 MB
 MEM_STATIC part       192 MB

 A cutoff of  1.0D-14 yielded   2079 shell pairs
 There are     21131 function pairs
 Smallest overlap matrix eigenvalue = 8.13E-07
 Linear dependence detected in AO basis
 Tighter screening thresholds may be required for diffuse basis sets
 Use S2THRESH > 14 and THRESH = 14 in case of SCF convergence issues
 Number of orthogonalized atomic orbitals = 205
 Maximum deviation from orthogonality = 1.126E-10

 Scale SEOQF with 1.000000e-01/1.000000e-01/1.000000e-01

 Standard Electronic Orientation quadrupole field applied
 Nucleus-field energy     =     0.0000000151 hartrees
 Guess from superposition of atomic densities
 Warning:  Energy on first SCF cycle will be non-variational
 SAD guess density has 68.000000 electrons

 -----------------------------------------------------------------------
  General SCF calculation program by
  Eric Jon Sundstrom, Paul Horn, Yuezhi Mao, Dmitri Zuev, Alec White,
  David Stuck, Shaama M.S., Shane Yost, Joonho Lee, David Small,
  Daniel Levine, Susi Lehtola, Hugh Burton, Evgeny Epifanovsky,
  Bang C. Huynh
 -----------------------------------------------------------------------
 Exchange:     0.1900 Hartree-Fock + 0.3500 B88 + 0.4600 muB88 + LR-HF
 Correlation:  0.1900 VWN5 + 0.8100 LYP
 Using Euler-Maclaurin-Lebedev (120,194) quadrature formula
 using 50 threads for integral computing
 -------------------------------------------------------
 OpenMP Integral computing Module                
 Release: version 1.0, May 2013, Q-Chem Inc. Pittsburgh 
 -------------------------------------------------------
 A restricted SCF calculation will be
 performed using DIIS
 SCF converges when DIIS error is below 1.0e-08
 ---------------------------------------
  Cycle       Energy         DIIS error
 ---------------------------------------
    1    -388.5649803760      5.06e-02  
    2    -385.6026986157      3.27e-03  
    3    -385.6411860480      2.33e-03  
    4    -385.6717662834      2.24e-04  
    5    -385.6720300540      1.15e-04  
    6    -385.6720935587      2.88e-05  
    7    -385.6720982549      3.17e-06  
    8    -385.6720985313      1.23e-06  
    9    -385.6720985504      8.94e-07  
   10    -385.6720985570      2.22e-07  
   11    -385.6720985574      3.16e-08  
   12    -385.6720985575      6.73e-09  Convergence criterion met
 ---------------------------------------
 SCF time:   CPU 330.86s  wall 7.00s 
 SCF   energy in the final basis set =     -385.6720985575
 Total energy in the final basis set =     -385.6720985575
 
 --------------------------------------------------------------
 
                    Orbital Energies (a.u.)
 --------------------------------------------------------------
 
 Alpha MOs
 -- Occupied --
-10.2807 -10.2803 -10.2739 -10.2739 -10.2737 -10.2737 -10.2732 -10.2732
-10.2730 -10.2730  -0.9621  -0.9078  -0.8592  -0.8254  -0.8026  -0.7054
 -0.6905  -0.6749  -0.5895  -0.5854  -0.5679  -0.5207  -0.5124  -0.4880
 -0.4870  -0.4703  -0.4651  -0.4375  -0.4057  -0.3971  -0.3964  -0.3495
 -0.2998  -0.2708
 -- Virtual --
 -0.0057   0.0220   0.0347   0.0409   0.0432   0.0506   0.0621   0.0626
  0.0821   0.0856   0.0897   0.0935   0.0953   0.1101   0.1215   0.1290
  0.1298   0.1384   0.1530   0.1575   0.1610   0.1612   0.1725   0.1789
  0.1793   0.1931   0.1972   0.2063   0.2152   0.2264   0.2277   0.2295
  0.2362   0.2408   0.2421   0.2477   0.2557   0.2571   0.2763   0.2791
  0.2870   0.2997   0.3017   0.3023   0.3061   0.3140   0.3169   0.3211
  0.3340   0.3424   0.3629   0.3725   0.3917   0.3946   0.4027   0.4057
  0.4357   0.4483   0.4745   0.5861   0.5973   0.6589   0.7007   0.7033
  0.7201   0.7204   0.7436   0.7762   0.7765   0.7766   0.7807   0.7938
  0.7981   0.8021   0.8173   0.8223   0.8293   0.8310   0.8467   0.8629
  0.8684   0.8816   0.9316   0.9505   0.9639   0.9822   0.9908   1.0093
  1.0254   1.0571   1.0676   1.0702   1.1069   1.1419   1.1541   1.1790
  1.1870   1.1908   1.2051   1.2571   1.2665   1.2834   1.3009   1.3283
  1.3349   1.4059   1.4310   1.4346   1.4721   1.4995   1.5316   1.5418
  1.5512   1.5635   1.5685   1.5687   1.5805   1.6263   1.8010   1.8732
  1.8893   1.9100   1.9667   1.9976   2.0078   2.0282   2.0410   2.0465
  2.0528   2.0722   2.1364   2.1631   2.1973   2.2433   2.2577   2.2708
  2.2734   2.2814   2.3464   2.3881   2.3954   2.3985   2.4115   2.4501
  2.5370   2.6804   2.6930   2.6997   2.7151   2.7324   2.7389   2.8040
  2.8503   2.8551   2.9017   2.9526   2.9609   3.0138   3.1773   3.4135
  3.5270   4.2814   4.3121   4.3480   4.3673   4.3803   4.4093   4.4872
  4.5119   4.6180   4.8694
 --------------------------------------------------------------
 
          Ground-State Mulliken Net Atomic Charges

     Atom                 Charge (a.u.)
  ----------------------------------------
      1 C                    -0.261269
      2 C                    -0.261269
      3 C                     0.086785
      4 C                     0.086785
      5 C                    -0.336922
      6 H                     0.189478
      7 C                    -0.336922
      8 H                     0.189478
      9 H                     0.191172
     10 H                     0.191172
     11 C                     0.087083
     12 C                     0.087083
     13 C                    -0.336977
     14 H                     0.189476
     15 C                    -0.336977
     16 H                     0.189476
     17 H                     0.191174
     18 H                     0.191174
  ----------------------------------------
  Sum of atomic charges =     0.000000

 -----------------------------------------------------------------
                    Cartesian Multipole Moments
 -----------------------------------------------------------------
    Charge (ESU x 10^10)
                 0.0000
    Dipole Moment (Debye)
         X      -0.0044      Y      -0.0000      Z       0.0981
       Tot       0.0982
    Quadrupole Moments (Debye-Ang)
        XX     -51.9739     XY       0.0000     YY     -52.0908
        XZ       0.5738     YZ      -0.0000     ZZ     -65.0870
    Octopole Moments (Debye-Ang^2)
       XXX       0.1950    XXY       0.0000    XYY       0.1481
       YYY      -0.0000    XXZ      -1.5124    XYZ      -0.0000
       YYZ      -3.3955    XZZ       0.4490    YZZ      -0.0000
       ZZZ     -13.2925
    Hexadecapole Moments (Debye-Ang^3)
      XXXX   -1109.7375   XXXY       0.0000   XXYY    -273.6594
      XYYY       0.0000   YYYY    -496.9502   XXXZ     -15.9894
      XXYZ       0.0000   XYYZ      -6.8112   YYYZ      -0.0000
      XXZZ    -247.6937   XYZZ       0.0000   YYZZ    -117.9466
      XZZZ     -28.7253   YZZZ      -0.0000   ZZZZ     -87.5092
 -----------------------------------------------------------------
Grid information in Angstroms:
 x:        120  min =  -6.000000 max =   6.000000
 y:        120  min =  -6.000000 max =   6.000000
 z:        120  min =  -6.000000 max =   6.000000
 Plotting alpha MOs:  34 35
 Created directory /tmp/qchem-203313/qchem201877/plots
 Total job time:  11.57s(wall), 569.81s(cpu) 
 Fri Nov 22 13:27:18 2024

        *************************************************************
        *                                                           *
        *  Thank you very much for using Q-Chem.  Have a nice day.  *
        *                                                           *
        *************************************************************


